ROOT
ATOM      1 CX   LIG A   1      -1.564 193.199  21.770  1.00  0.00     0.000 C 
ATOM      2 AX   LIG A   1      -1.064 193.199  21.770  1.00  0.00     0.000 A 
ATOM      3 NX   LIG A   1      -0.564 193.199  21.770  1.00  0.00     0.000 N 
ATOM      4 NAX  LIG A   1      -0.064 193.199  21.770  1.00  0.00     0.000 NA
ATOM      5 OX   LIG A   1       0.436 193.199  21.770  1.00  0.00     0.000 O 
ATOM      6 OAX  LIG A   1       0.936 193.199  21.770  1.00  0.00     0.000 OA
ATOM      7 SX   LIG A   1       1.436 193.199  21.770  1.00  0.00     0.000 S 
ATOM      8 SAX  LIG A   1       1.936 193.199  21.770  1.00  0.00     0.000 SA
ATOM      9 PX   LIG A   1       2.436 193.199  21.770  1.00  0.00     0.000 P 
ATOM     10 FX   LIG A   1       2.936 193.199  21.770  1.00  0.00     0.000 F 
ATOM     11 ClX  LIG A   1       3.436 193.199  21.770  1.00  0.00     0.000 Cl
ATOM     12 BrX  LIG A   1       3.936 193.199  21.770  1.00  0.00     0.000 Br
ATOM     13 IX   LIG A   1       4.436 193.199  21.770  1.00  0.00     0.000 I 
ATOM     14 HDX  LIG A   1       4.936 193.199  21.770  1.00  0.00     0.000 HD
ENDROOT
TORSDOF 0
